version 3
run General-0-20250531-15:35:09-306886
attr configname General
attr datetime 20250531-15:35:09
attr datetimef 20250531-153509
attr experiment General
attr inifile omnetpp.ini
attr iterationvars ""
attr iterationvarsd ""
attr iterationvarsf ""
attr measurement ""
attr network DispatcherTest
attr processid 306886
attr repetition 0
attr replication #0
attr resultdir results
attr runnumber 0
attr seedset 0
config image-path ../../../inet-4.5.4/images
config network DispatcherTest
config DispatcherTest.numQueues 3
config DispatcherTest.rulesFile "\"DispatcherRules.dat\""

vector 0 DispatcherTest.generator packetReceived:vector(packetBytes) ETV
attr interpolationmode none
attr recordingmode vector(packetBytes)
attr source packetReceived
attr title "packets received, packetBytes"
vector 1 DispatcherTest.generator packetSent:vector(packetBytes) ETV
attr interpolationmode none
attr recordingmode vector(packetBytes)
attr source packetSent
attr title "packets sent, packetBytes"
vector 2 DispatcherTest.generator endToEndDelay:vector ETV
attr interpolationmode none
attr recordingmode vector
attr source dataAge(packetReceived)
attr title "end-to-end delay"
attr unit s
vector 3 DispatcherTest.sink[0] packetReceived:vector(packetBytes) ETV
attr interpolationmode none
attr recordingmode vector(packetBytes)
attr source packetReceived
attr title "packets received, packetBytes"
vector 4 DispatcherTest.sink[0] endToEndDelay:vector ETV
attr interpolationmode none
attr recordingmode vector
attr source dataAge(packetReceived)
attr title "end-to-end delay"
attr unit s
vector 5 DispatcherTest.sink[1] packetReceived:vector(packetBytes) ETV
attr interpolationmode none
attr recordingmode vector(packetBytes)
attr source packetReceived
attr title "packets received, packetBytes"
vector 6 DispatcherTest.sink[1] endToEndDelay:vector ETV
attr interpolationmode none
attr recordingmode vector
attr source dataAge(packetReceived)
attr title "end-to-end delay"
attr unit s
vector 7 DispatcherTest.sink[2] packetReceived:vector(packetBytes) ETV
attr interpolationmode none
attr recordingmode vector(packetBytes)
attr source packetReceived
attr title "packets received, packetBytes"
vector 8 DispatcherTest.sink[2] endToEndDelay:vector ETV
attr interpolationmode none
attr recordingmode vector
attr source dataAge(packetReceived)
attr title "end-to-end delay"
attr unit s
vector 9 DispatcherTest.dispatcher recvPacketSize ETV
1	1	0	1000
1	5	0.898560388484	1000
1	9	2.758164600559	1000
1	13	3.735171026952	1000
1	17	4.220299190674	1000
1	21	4.573458329812	1000
1	25	4.631842998905	1000
1	29	4.950199139747	1000
1	33	5.599645487998	1000
1	37	7.271856688323	1000
1	41	8.111289541223	1000
1	45	10.709543627072	1000
1	49	10.783228982537	1000
1	53	10.874390008661	1000
1	57	10.89481559706	1000
1	61	12.682303260499	1000
1	65	14.188087519136	1000
1	69	18.033309388278	1000
1	73	19.647311463171	1000
1	77	21.163847437161	1000
1	81	22.439075139385	1000
1	85	23.311396334427	1000
1	89	24.082230992894	1000
1	93	24.82005828465	1000
1	97	25.355624004878	1000
1	101	26.84387883063	1000
1	105	27.452961253813	1000
1	109	28.293295959425	1000
1	113	28.312264528626	1000
1	117	29.273645467692	1000
1	121	30.220642144867	1000
1	125	31.180190122235	1000
1	129	34.058105143513	1000
1	133	35.203244098213	1000
1	137	35.648762593264	1000
1	141	37.975113654958	1000
1	145	38.079674880733	1000
1	149	41.579888565188	1000
1	153	42.690486010875	1000
1	157	43.133890039496	1000
1	161	43.512852003779	1000
1	165	43.905964561083	1000
1	169	43.945147717496	1000
1	173	44.951018722663	1000
1	177	48.143965364717	1000
1	181	49.201791778069	1000
1	185	49.377705323495	1000
1	189	50.436448038589	1000
1	193	50.728528571856	1000
1	197	51.356470152847	1000
1	201	51.636747161326	1000
1	205	51.809874617472	1000
1	209	52.933042919005	1000
1	213	53.314598762379	1000
1	217	54.821234095652	1000
1	221	57.808423987504	1000
1	225	58.894693368382	1000
1	229	58.908357946813	1000
1	233	59.883459880969	1000
1	237	61.003274246723	1000
1	241	64.576862619067	1000
1	245	66.682183919859	1000
1	249	67.394767513192	1000
1	253	67.452094439616	1000
1	257	68.796339711768	1000
1	261	69.379218100635	1000
1	265	73.27078822348	1000
1	269	73.7162076854	1000
1	273	74.883081211949	1000
1	277	77.007318408951	1000
1	281	77.073615810433	1000
1	285	77.906459326499	1000
1	289	78.214874166597	1000
1	293	78.955633117044	1000
1	297	79.054283425462	1000
1	301	79.912179066536	1000
1	305	82.561434995212	1000
1	309	82.944995209311	1000
1	313	84.045841119402	1000
1	317	84.187171832963	1000
1	321	85.447105643072	1000
1	325	85.788759810098	1000
1	329	85.991110248665	1000
1	333	86.874239290624	1000
1	337	87.054491542609	1000
1	341	87.516222438653	1000
1	345	87.674563944884	1000
1	349	88.517646977032	1000
1	353	89.846404850782	1000
1	357	90.414309004262	1000
1	361	91.825333413556	1000
1	365	94.089066989417	1000
1	369	95.107725719436	1000
1	373	97.32923261791	1000
1	377	98.468840581443	1000
1	381	99.065219975773	1000
1	385	102.908226559017	1000
1	389	103.031753206379	1000
1	393	104.488571764943	1000
1	397	105.01929426156	1000
3	4	0	20
3	20	4.220299190674	20
3	28	4.631842998905	20
3	52	10.783228982537	20
3	56	10.874390008661	20
3	60	10.89481559706	20
3	68	14.188087519136	20
3	72	18.033309388278	20
3	84	22.439075139385	20
3	92	24.082230992894	20
3	108	27.452961253813	20
3	112	28.293295959425	20
3	116	28.312264528626	20
3	124	30.220642144867	20
3	132	34.058105143513	20
3	140	35.648762593264	20
3	160	43.133890039496	20
3	172	43.945147717496	20
3	176	44.951018722663	20
3	180	48.143965364717	20
3	184	49.201791778069	20
3	188	49.377705323495	20
3	192	50.436448038589	20
3	200	51.356470152847	20
3	224	57.808423987504	20
3	232	58.908357946813	20
3	260	68.796339711768	20
3	288	77.906459326499	20
3	304	79.912179066536	20
3	312	82.944995209311	20
3	320	84.187171832963	20
3	336	86.874239290624	20
3	340	87.054491542609	20
3	360	90.414309004262	20
3	364	91.825333413556	20
3	372	95.107725719436	20
3	376	97.32923261791	20
3	384	99.065219975773	20
3	392	103.031753206379	20
5	8	0.898560388484	20
5	12	2.758164600559	20
5	16	3.735171026952	20
5	44	8.111289541223	20
5	48	10.709543627072	20
5	64	12.682303260499	20
5	76	19.647311463171	20
5	88	23.311396334427	20
5	120	29.273645467692	20
5	128	31.180190122235	20
5	144	37.975113654958	20
5	148	38.079674880733	20
5	164	43.512852003779	20
5	168	43.905964561083	20
5	208	51.809874617472	20
5	212	52.933042919005	20
5	216	53.314598762379	20
5	220	54.821234095652	20
5	228	58.894693368382	20
5	244	64.576862619067	20
5	252	67.394767513192	20
5	256	67.452094439616	20
5	348	87.674563944884	20
5	356	89.846404850782	20
5	388	102.908226559017	20
5	396	104.488571764943	20
5	400	105.01929426156	20
7	24	4.573458329812	20
7	32	4.950199139747	20
7	36	5.599645487998	20
7	40	7.271856688323	20
7	80	21.163847437161	20
7	96	24.82005828465	20
7	100	25.355624004878	20
7	104	26.84387883063	20
7	136	35.203244098213	20
7	152	41.579888565188	20
7	156	42.690486010875	20
7	196	50.728528571856	20
7	204	51.636747161326	20
7	236	59.883459880969	20
7	240	61.003274246723	20
7	248	66.682183919859	20
7	264	69.379218100635	20
7	268	73.27078822348	20
7	272	73.7162076854	20
7	276	74.883081211949	20
7	280	77.007318408951	20
7	284	77.073615810433	20
7	292	78.214874166597	20
7	296	78.955633117044	20
7	300	79.054283425462	20
7	308	82.561434995212	20
7	316	84.045841119402	20
7	324	85.447105643072	20
7	328	85.788759810098	20
7	332	85.991110248665	20
7	344	87.516222438653	20
7	352	88.517646977032	20
7	368	94.089066989417	20
7	380	98.468840581443	20
9	3	0	20
9	7	0.898560388484	20
9	11	2.758164600559	20
9	15	3.735171026952	20
9	19	4.220299190674	20
9	23	4.573458329812	20
9	27	4.631842998905	20
9	31	4.950199139747	20
9	35	5.599645487998	20
9	39	7.271856688323	20
9	43	8.111289541223	20
9	47	10.709543627072	20
9	51	10.783228982537	20
9	55	10.874390008661	20
9	59	10.89481559706	20
9	63	12.682303260499	20
9	67	14.188087519136	20
9	71	18.033309388278	20
9	75	19.647311463171	20
9	79	21.163847437161	20
9	83	22.439075139385	20
9	87	23.311396334427	20
9	91	24.082230992894	20
9	95	24.82005828465	20
9	99	25.355624004878	20
9	103	26.84387883063	20
9	107	27.452961253813	20
9	111	28.293295959425	20
9	115	28.312264528626	20
9	119	29.273645467692	20
9	123	30.220642144867	20
9	127	31.180190122235	20
9	131	34.058105143513	20
9	135	35.203244098213	20
9	139	35.648762593264	20
9	143	37.975113654958	20
9	147	38.079674880733	20
9	151	41.579888565188	20
9	155	42.690486010875	20
9	159	43.133890039496	20
9	163	43.512852003779	20
9	167	43.905964561083	20
9	171	43.945147717496	20
9	175	44.951018722663	20
9	179	48.143965364717	20
9	183	49.201791778069	20
9	187	49.377705323495	20
9	191	50.436448038589	20
9	195	50.728528571856	20
9	199	51.356470152847	20
9	203	51.636747161326	20
9	207	51.809874617472	20
9	211	52.933042919005	20
9	215	53.314598762379	20
9	219	54.821234095652	20
9	223	57.808423987504	20
9	227	58.894693368382	20
9	231	58.908357946813	20
9	235	59.883459880969	20
9	239	61.003274246723	20
9	243	64.576862619067	20
9	247	66.682183919859	20
9	251	67.394767513192	20
9	255	67.452094439616	20
9	259	68.796339711768	20
9	263	69.379218100635	20
9	267	73.27078822348	20
9	271	73.7162076854	20
9	275	74.883081211949	20
9	279	77.007318408951	20
9	283	77.073615810433	20
9	287	77.906459326499	20
9	291	78.214874166597	20
9	295	78.955633117044	20
9	299	79.054283425462	20
9	303	79.912179066536	20
9	307	82.561434995212	20
9	311	82.944995209311	20
9	315	84.045841119402	20
9	319	84.187171832963	20
9	323	85.447105643072	20
9	327	85.788759810098	20
9	331	85.991110248665	20
9	335	86.874239290624	20
9	339	87.054491542609	20
9	343	87.516222438653	20
9	347	87.674563944884	20
9	351	88.517646977032	20
9	355	89.846404850782	20
9	359	90.414309004262	20
9	363	91.825333413556	20
9	367	94.089066989417	20
9	371	95.107725719436	20
9	375	97.32923261791	20
9	379	98.468840581443	20
9	383	99.065219975773	20
9	387	102.908226559017	20
9	391	103.031753206379	20
9	395	104.488571764943	20
9	399	105.01929426156	20

